V -t * -v 1.0a5 -a 0
A -t * -n 1 -p 0 -o 0x7fffffff -c 30 -a 1
A -t * -h 1 -m 1073741823 -s 0
c -t * -i 1 -n Blue
c -t * -i 2 -n Red
c -t * -i 3 -n Green
n -t * -a 4 -s 4 -S UP -v circle -c black -i black
n -t * -a 0 -s 0 -S UP -v circle -c black -i black
n -t * -a 5 -s 5 -S UP -v circle -c black -i black
n -t * -a 1 -s 1 -S UP -v circle -c black -i black
n -t * -a 6 -s 6 -S UP -v circle -c black -i black
n -t * -a 2 -s 2 -S UP -v circle -c black -i black
n -t * -a 7 -s 7 -S UP -v circle -c black -i black
n -t * -a 3 -s 3 -S UP -v circle -c black -i black
l -t * -s 0 -d 3 -S UP -r 2000000 -D 0.01 -c black -o right-down
l -t * -s 1 -d 3 -S UP -r 1000000 -D 0.0050000000000000001 -c black -o right
l -t * -s 2 -d 3 -S UP -r 500000 -D 0.01 -c black -o right-up
l -t * -s 3 -d 4 -S UP -r 1500000 -D 0.01 -c black -o right
l -t * -s 4 -d 5 -S UP -r 500000 -D 0.01 -c black -o right-up
l -t * -s 4 -d 6 -S UP -r 1000000 -D 0.01 -c black -o right
l -t * -s 4 -d 7 -S UP -r 1000000 -D 0.0050000000000000001 -c black -o right-down
+ -t 1 -s 0 -d 3 -p cbr -e 1000 -c 1 -i 0 -a 1 -x {0.0 5.0 0 ------- null}
- -t 1 -s 0 -d 3 -p cbr -e 1000 -c 1 -i 0 -a 1 -x {0.0 5.0 0 ------- null}
h -t 1 -s 0 -d 3 -p cbr -e 1000 -c 1 -i 0 -a 1 -x {0.0 5.0 -1 ------- null}
+ -t 1 -s 0 -d 3 -p cbr -e 500 -c 1 -i 1 -a 1 -x {0.0 5.0 1 ------- null}
- -t 1.004 -s 0 -d 3 -p cbr -e 500 -c 1 -i 1 -a 1 -x {0.0 5.0 1 ------- null}
h -t 1.004 -s 0 -d 3 -p cbr -e 500 -c 1 -i 1 -a 1 -x {0.0 5.0 -1 ------- null}
r -t 1.014 -s 0 -d 3 -p cbr -e 1000 -c 1 -i 0 -a 1 -x {0.0 5.0 0 ------- null}
+ -t 1.014 -s 3 -d 4 -p cbr -e 1000 -c 1 -i 0 -a 1 -x {0.0 5.0 0 ------- null}
- -t 1.014 -s 3 -d 4 -p cbr -e 1000 -c 1 -i 0 -a 1 -x {0.0 5.0 0 ------- null}
h -t 1.014 -s 3 -d 4 -p cbr -e 1000 -c 1 -i 0 -a 1 -x {0.0 5.0 -1 ------- null}
r -t 1.016 -s 0 -d 3 -p cbr -e 500 -c 1 -i 1 -a 1 -x {0.0 5.0 1 ------- null}
+ -t 1.016 -s 3 -d 4 -p cbr -e 500 -c 1 -i 1 -a 1 -x {0.0 5.0 1 ------- null}
- -t 1.01933333333333 -s 3 -d 4 -p cbr -e 500 -c 1 -i 1 -a 1 -x {0.0 5.0 1 ------- null}
h -t 1.01933333333333 -s 3 -d 4 -p cbr -e 500 -c 1 -i 1 -a 1 -x {0.0 5.0 -1 ------- null}
+ -t 1.0234375 -s 0 -d 3 -p cbr -e 1000 -c 1 -i 2 -a 1 -x {0.0 5.0 2 ------- null}
- -t 1.0234375 -s 0 -d 3 -p cbr -e 1000 -c 1 -i 2 -a 1 -x {0.0 5.0 2 ------- null}
h -t 1.0234375 -s 0 -d 3 -p cbr -e 1000 -c 1 -i 2 -a 1 -x {0.0 5.0 -1 ------- null}
+ -t 1.0234375 -s 0 -d 3 -p cbr -e 500 -c 1 -i 3 -a 1 -x {0.0 5.0 3 ------- null}
- -t 1.0274375 -s 0 -d 3 -p cbr -e 500 -c 1 -i 3 -a 1 -x {0.0 5.0 3 ------- null}
h -t 1.0274375 -s 0 -d 3 -p cbr -e 500 -c 1 -i 3 -a 1 -x {0.0 5.0 -1 ------- null}
r -t 1.02933333333333 -s 3 -d 4 -p cbr -e 1000 -c 1 -i 0 -a 1 -x {0.0 5.0 0 ------- null}
+ -t 1.02933333333333 -s 4 -d 5 -p cbr -e 1000 -c 1 -i 0 -a 1 -x {0.0 5.0 0 ------- null}
- -t 1.02933333333333 -s 4 -d 5 -p cbr -e 1000 -c 1 -i 0 -a 1 -x {0.0 5.0 0 ------- null}
h -t 1.02933333333333 -s 4 -d 5 -p cbr -e 1000 -c 1 -i 0 -a 1 -x {0.0 5.0 -1 ------- null}
r -t 1.032 -s 3 -d 4 -p cbr -e 500 -c 1 -i 1 -a 1 -x {0.0 5.0 1 ------- null}
+ -t 1.032 -s 4 -d 5 -p cbr -e 500 -c 1 -i 1 -a 1 -x {0.0 5.0 1 ------- null}
r -t 1.0374375 -s 0 -d 3 -p cbr -e 1000 -c 1 -i 2 -a 1 -x {0.0 5.0 2 ------- null}
+ -t 1.0374375 -s 3 -d 4 -p cbr -e 1000 -c 1 -i 2 -a 1 -x {0.0 5.0 2 ------- null}
- -t 1.0374375 -s 3 -d 4 -p cbr -e 1000 -c 1 -i 2 -a 1 -x {0.0 5.0 2 ------- null}
h -t 1.0374375 -s 3 -d 4 -p cbr -e 1000 -c 1 -i 2 -a 1 -x {0.0 5.0 -1 ------- null}
r -t 1.0394375 -s 0 -d 3 -p cbr -e 500 -c 1 -i 3 -a 1 -x {0.0 5.0 3 ------- null}
+ -t 1.0394375 -s 3 -d 4 -p cbr -e 500 -c 1 -i 3 -a 1 -x {0.0 5.0 3 ------- null}
- -t 1.04277083333333 -s 3 -d 4 -p cbr -e 500 -c 1 -i 3 -a 1 -x {0.0 5.0 3 ------- null}
h -t 1.04277083333333 -s 3 -d 4 -p cbr -e 500 -c 1 -i 3 -a 1 -x {0.0 5.0 -1 ------- null}
- -t 1.04533333333333 -s 4 -d 5 -p cbr -e 500 -c 1 -i 1 -a 1 -x {0.0 5.0 1 ------- null}
h -t 1.04533333333333 -s 4 -d 5 -p cbr -e 500 -c 1 -i 1 -a 1 -x {0.0 5.0 -1 ------- null}
+ -t 1.046875 -s 0 -d 3 -p cbr -e 1000 -c 1 -i 4 -a 1 -x {0.0 5.0 4 ------- null}
- -t 1.046875 -s 0 -d 3 -p cbr -e 1000 -c 1 -i 4 -a 1 -x {0.0 5.0 4 ------- null}
h -t 1.046875 -s 0 -d 3 -p cbr -e 1000 -c 1 -i 4 -a 1 -x {0.0 5.0 -1 ------- null}
+ -t 1.046875 -s 0 -d 3 -p cbr -e 500 -c 1 -i 5 -a 1 -x {0.0 5.0 5 ------- null}
- -t 1.050875 -s 0 -d 3 -p cbr -e 500 -c 1 -i 5 -a 1 -x {0.0 5.0 5 ------- null}
h -t 1.050875 -s 0 -d 3 -p cbr -e 500 -c 1 -i 5 -a 1 -x {0.0 5.0 -1 ------- null}
r -t 1.05277083333333 -s 3 -d 4 -p cbr -e 1000 -c 1 -i 2 -a 1 -x {0.0 5.0 2 ------- null}
+ -t 1.05277083333333 -s 4 -d 5 -p cbr -e 1000 -c 1 -i 2 -a 1 -x {0.0 5.0 2 ------- null}
- -t 1.05333333333333 -s 4 -d 5 -p cbr -e 1000 -c 1 -i 2 -a 1 -x {0.0 5.0 2 ------- null}
h -t 1.05333333333333 -s 4 -d 5 -p cbr -e 1000 -c 1 -i 2 -a 1 -x {0.0 5.0 -1 ------- null}
r -t 1.05533333333333 -s 4 -d 5 -p cbr -e 1000 -c 1 -i 0 -a 1 -x {0.0 5.0 0 ------- null}
r -t 1.0554375 -s 3 -d 4 -p cbr -e 500 -c 1 -i 3 -a 1 -x {0.0 5.0 3 ------- null}
+ -t 1.0554375 -s 4 -d 5 -p cbr -e 500 -c 1 -i 3 -a 1 -x {0.0 5.0 3 ------- null}
r -t 1.060875 -s 0 -d 3 -p cbr -e 1000 -c 1 -i 4 -a 1 -x {0.0 5.0 4 ------- null}
+ -t 1.060875 -s 3 -d 4 -p cbr -e 1000 -c 1 -i 4 -a 1 -x {0.0 5.0 4 ------- null}
- -t 1.060875 -s 3 -d 4 -p cbr -e 1000 -c 1 -i 4 -a 1 -x {0.0 5.0 4 ------- null}
h -t 1.060875 -s 3 -d 4 -p cbr -e 1000 -c 1 -i 4 -a 1 -x {0.0 5.0 -1 ------- null}
r -t 1.062875 -s 0 -d 3 -p cbr -e 500 -c 1 -i 5 -a 1 -x {0.0 5.0 5 ------- null}
+ -t 1.062875 -s 3 -d 4 -p cbr -e 500 -c 1 -i 5 -a 1 -x {0.0 5.0 5 ------- null}
r -t 1.06333333333333 -s 4 -d 5 -p cbr -e 500 -c 1 -i 1 -a 1 -x {0.0 5.0 1 ------- null}
- -t 1.06620833333333 -s 3 -d 4 -p cbr -e 500 -c 1 -i 5 -a 1 -x {0.0 5.0 5 ------- null}
h -t 1.06620833333333 -s 3 -d 4 -p cbr -e 500 -c 1 -i 5 -a 1 -x {0.0 5.0 -1 ------- null}
- -t 1.06933333333333 -s 4 -d 5 -p cbr -e 500 -c 1 -i 3 -a 1 -x {0.0 5.0 3 ------- null}
h -t 1.06933333333333 -s 4 -d 5 -p cbr -e 500 -c 1 -i 3 -a 1 -x {0.0 5.0 -1 ------- null}
+ -t 1.0703125 -s 0 -d 3 -p cbr -e 1000 -c 1 -i 6 -a 1 -x {0.0 5.0 6 ------- null}
- -t 1.0703125 -s 0 -d 3 -p cbr -e 1000 -c 1 -i 6 -a 1 -x {0.0 5.0 6 ------- null}
h -t 1.0703125 -s 0 -d 3 -p cbr -e 1000 -c 1 -i 6 -a 1 -x {0.0 5.0 -1 ------- null}
+ -t 1.0703125 -s 0 -d 3 -p cbr -e 500 -c 1 -i 7 -a 1 -x {0.0 5.0 7 ------- null}
- -t 1.0743125 -s 0 -d 3 -p cbr -e 500 -c 1 -i 7 -a 1 -x {0.0 5.0 7 ------- null}
h -t 1.0743125 -s 0 -d 3 -p cbr -e 500 -c 1 -i 7 -a 1 -x {0.0 5.0 -1 ------- null}
r -t 1.07620833333333 -s 3 -d 4 -p cbr -e 1000 -c 1 -i 4 -a 1 -x {0.0 5.0 4 ------- null}
+ -t 1.07620833333333 -s 4 -d 5 -p cbr -e 1000 -c 1 -i 4 -a 1 -x {0.0 5.0 4 ------- null}
- -t 1.07733333333333 -s 4 -d 5 -p cbr -e 1000 -c 1 -i 4 -a 1 -x {0.0 5.0 4 ------- null}
h -t 1.07733333333333 -s 4 -d 5 -p cbr -e 1000 -c 1 -i 4 -a 1 -x {0.0 5.0 -1 ------- null}
r -t 1.078875 -s 3 -d 4 -p cbr -e 500 -c 1 -i 5 -a 1 -x {0.0 5.0 5 ------- null}
+ -t 1.078875 -s 4 -d 5 -p cbr -e 500 -c 1 -i 5 -a 1 -x {0.0 5.0 5 ------- null}
r -t 1.07933333333333 -s 4 -d 5 -p cbr -e 1000 -c 1 -i 2 -a 1 -x {0.0 5.0 2 ------- null}
r -t 1.0843125 -s 0 -d 3 -p cbr -e 1000 -c 1 -i 6 -a 1 -x {0.0 5.0 6 ------- null}
+ -t 1.0843125 -s 3 -d 4 -p cbr -e 1000 -c 1 -i 6 -a 1 -x {0.0 5.0 6 ------- null}
- -t 1.0843125 -s 3 -d 4 -p cbr -e 1000 -c 1 -i 6 -a 1 -x {0.0 5.0 6 ------- null}
h -t 1.0843125 -s 3 -d 4 -p cbr -e 1000 -c 1 -i 6 -a 1 -x {0.0 5.0 -1 ------- null}
r -t 1.0863125 -s 0 -d 3 -p cbr -e 500 -c 1 -i 7 -a 1 -x {0.0 5.0 7 ------- null}
+ -t 1.0863125 -s 3 -d 4 -p cbr -e 500 -c 1 -i 7 -a 1 -x {0.0 5.0 7 ------- null}
r -t 1.08733333333333 -s 4 -d 5 -p cbr -e 500 -c 1 -i 3 -a 1 -x {0.0 5.0 3 ------- null}
- -t 1.08964583333333 -s 3 -d 4 -p cbr -e 500 -c 1 -i 7 -a 1 -x {0.0 5.0 7 ------- null}
h -t 1.08964583333333 -s 3 -d 4 -p cbr -e 500 -c 1 -i 7 -a 1 -x {0.0 5.0 -1 ------- null}
- -t 1.09333333333333 -s 4 -d 5 -p cbr -e 500 -c 1 -i 5 -a 1 -x {0.0 5.0 5 ------- null}
h -t 1.09333333333333 -s 4 -d 5 -p cbr -e 500 -c 1 -i 5 -a 1 -x {0.0 5.0 -1 ------- null}
+ -t 1.09375 -s 0 -d 3 -p cbr -e 1000 -c 1 -i 8 -a 1 -x {0.0 5.0 8 ------- null}
- -t 1.09375 -s 0 -d 3 -p cbr -e 1000 -c 1 -i 8 -a 1 -x {0.0 5.0 8 ------- null}
h -t 1.09375 -s 0 -d 3 -p cbr -e 1000 -c 1 -i 8 -a 1 -x {0.0 5.0 -1 ------- null}
+ -t 1.09375 -s 0 -d 3 -p cbr -e 500 -c 1 -i 9 -a 1 -x {0.0 5.0 9 ------- null}
- -t 1.09775 -s 0 -d 3 -p cbr -e 500 -c 1 -i 9 -a 1 -x {0.0 5.0 9 ------- null}
h -t 1.09775 -s 0 -d 3 -p cbr -e 500 -c 1 -i 9 -a 1 -x {0.0 5.0 -1 ------- null}
r -t 1.09964583333333 -s 3 -d 4 -p cbr -e 1000 -c 1 -i 6 -a 1 -x {0.0 5.0 6 ------- null}
+ -t 1.09964583333333 -s 4 -d 5 -p cbr -e 1000 -c 1 -i 6 -a 1 -x {0.0 5.0 6 ------- null}
- -t 1.10133333333333 -s 4 -d 5 -p cbr -e 1000 -c 1 -i 6 -a 1 -x {0.0 5.0 6 ------- null}
h -t 1.10133333333333 -s 4 -d 5 -p cbr -e 1000 -c 1 -i 6 -a 1 -x {0.0 5.0 -1 ------- null}
r -t 1.1023125 -s 3 -d 4 -p cbr -e 500 -c 1 -i 7 -a 1 -x {0.0 5.0 7 ------- null}
+ -t 1.1023125 -s 4 -d 5 -p cbr -e 500 -c 1 -i 7 -a 1 -x {0.0 5.0 7 ------- null}
r -t 1.10333333333333 -s 4 -d 5 -p cbr -e 1000 -c 1 -i 4 -a 1 -x {0.0 5.0 4 ------- null}
r -t 1.10775 -s 0 -d 3 -p cbr -e 1000 -c 1 -i 8 -a 1 -x {0.0 5.0 8 ------- null}
+ -t 1.10775 -s 3 -d 4 -p cbr -e 1000 -c 1 -i 8 -a 1 -x {0.0 5.0 8 ------- null}
- -t 1.10775 -s 3 -d 4 -p cbr -e 1000 -c 1 -i 8 -a 1 -x {0.0 5.0 8 ------- null}
h -t 1.10775 -s 3 -d 4 -p cbr -e 1000 -c 1 -i 8 -a 1 -x {0.0 5.0 -1 ------- null}
r -t 1.10975 -s 0 -d 3 -p cbr -e 500 -c 1 -i 9 -a 1 -x {0.0 5.0 9 ------- null}
+ -t 1.10975 -s 3 -d 4 -p cbr -e 500 -c 1 -i 9 -a 1 -x {0.0 5.0 9 ------- null}
r -t 1.11133333333333 -s 4 -d 5 -p cbr -e 500 -c 1 -i 5 -a 1 -x {0.0 5.0 5 ------- null}
- -t 1.11308333333333 -s 3 -d 4 -p cbr -e 500 -c 1 -i 9 -a 1 -x {0.0 5.0 9 ------- null}
h -t 1.11308333333333 -s 3 -d 4 -p cbr -e 500 -c 1 -i 9 -a 1 -x {0.0 5.0 -1 ------- null}
+ -t 1.1171875 -s 0 -d 3 -p cbr -e 1000 -c 1 -i 10 -a 1 -x {0.0 5.0 10 ------- null}
- -t 1.1171875 -s 0 -d 3 -p cbr -e 1000 -c 1 -i 10 -a 1 -x {0.0 5.0 10 ------- null}
h -t 1.1171875 -s 0 -d 3 -p cbr -e 1000 -c 1 -i 10 -a 1 -x {0.0 5.0 -1 ------- null}
+ -t 1.1171875 -s 0 -d 3 -p cbr -e 500 -c 1 -i 11 -a 1 -x {0.0 5.0 11 ------- null}
- -t 1.11733333333333 -s 4 -d 5 -p cbr -e 500 -c 1 -i 7 -a 1 -x {0.0 5.0 7 ------- null}
h -t 1.11733333333333 -s 4 -d 5 -p cbr -e 500 -c 1 -i 7 -a 1 -x {0.0 5.0 -1 ------- null}
- -t 1.1211875 -s 0 -d 3 -p cbr -e 500 -c 1 -i 11 -a 1 -x {0.0 5.0 11 ------- null}
h -t 1.1211875 -s 0 -d 3 -p cbr -e 500 -c 1 -i 11 -a 1 -x {0.0 5.0 -1 ------- null}
r -t 1.12308333333333 -s 3 -d 4 -p cbr -e 1000 -c 1 -i 8 -a 1 -x {0.0 5.0 8 ------- null}
+ -t 1.12308333333333 -s 4 -d 5 -p cbr -e 1000 -c 1 -i 8 -a 1 -x {0.0 5.0 8 ------- null}
- -t 1.12533333333333 -s 4 -d 5 -p cbr -e 1000 -c 1 -i 8 -a 1 -x {0.0 5.0 8 ------- null}
h -t 1.12533333333333 -s 4 -d 5 -p cbr -e 1000 -c 1 -i 8 -a 1 -x {0.0 5.0 -1 ------- null}
r -t 1.12575 -s 3 -d 4 -p cbr -e 500 -c 1 -i 9 -a 1 -x {0.0 5.0 9 ------- null}
+ -t 1.12575 -s 4 -d 5 -p cbr -e 500 -c 1 -i 9 -a 1 -x {0.0 5.0 9 ------- null}
r -t 1.12733333333333 -s 4 -d 5 -p cbr -e 1000 -c 1 -i 6 -a 1 -x {0.0 5.0 6 ------- null}
r -t 1.1311875 -s 0 -d 3 -p cbr -e 1000 -c 1 -i 10 -a 1 -x {0.0 5.0 10 ------- null}
+ -t 1.1311875 -s 3 -d 4 -p cbr -e 1000 -c 1 -i 10 -a 1 -x {0.0 5.0 10 ------- null}
- -t 1.1311875 -s 3 -d 4 -p cbr -e 1000 -c 1 -i 10 -a 1 -x {0.0 5.0 10 ------- null}
h -t 1.1311875 -s 3 -d 4 -p cbr -e 1000 -c 1 -i 10 -a 1 -x {0.0 5.0 -1 ------- null}
r -t 1.1331875 -s 0 -d 3 -p cbr -e 500 -c 1 -i 11 -a 1 -x {0.0 5.0 11 ------- null}
+ -t 1.1331875 -s 3 -d 4 -p cbr -e 500 -c 1 -i 11 -a 1 -x {0.0 5.0 11 ------- null}
r -t 1.13533333333333 -s 4 -d 5 -p cbr -e 500 -c 1 -i 7 -a 1 -x {0.0 5.0 7 ------- null}
- -t 1.13652083333333 -s 3 -d 4 -p cbr -e 500 -c 1 -i 11 -a 1 -x {0.0 5.0 11 ------- null}
h -t 1.13652083333333 -s 3 -d 4 -p cbr -e 500 -c 1 -i 11 -a 1 -x {0.0 5.0 -1 ------- null}
+ -t 1.140625 -s 0 -d 3 -p cbr -e 1000 -c 1 -i 12 -a 1 -x {0.0 5.0 12 ------- null}
- -t 1.140625 -s 0 -d 3 -p cbr -e 1000 -c 1 -i 12 -a 1 -x {0.0 5.0 12 ------- null}
h -t 1.140625 -s 0 -d 3 -p cbr -e 1000 -c 1 -i 12 -a 1 -x {0.0 5.0 -1 ------- null}
+ -t 1.140625 -s 0 -d 3 -p cbr -e 500 -c 1 -i 13 -a 1 -x {0.0 5.0 13 ------- null}
- -t 1.14133333333333 -s 4 -d 5 -p cbr -e 500 -c 1 -i 9 -a 1 -x {0.0 5.0 9 ------- null}
h -t 1.14133333333333 -s 4 -d 5 -p cbr -e 500 -c 1 -i 9 -a 1 -x {0.0 5.0 -1 ------- null}
- -t 1.144625 -s 0 -d 3 -p cbr -e 500 -c 1 -i 13 -a 1 -x {0.0 5.0 13 ------- null}
h -t 1.144625 -s 0 -d 3 -p cbr -e 500 -c 1 -i 13 -a 1 -x {0.0 5.0 -1 ------- null}
r -t 1.14652083333333 -s 3 -d 4 -p cbr -e 1000 -c 1 -i 10 -a 1 -x {0.0 5.0 10 ------- null}
+ -t 1.14652083333333 -s 4 -d 5 -p cbr -e 1000 -c 1 -i 10 -a 1 -x {0.0 5.0 10 ------- null}
r -t 1.1491875 -s 3 -d 4 -p cbr -e 500 -c 1 -i 11 -a 1 -x {0.0 5.0 11 ------- null}
+ -t 1.1491875 -s 4 -d 5 -p cbr -e 500 -c 1 -i 11 -a 1 -x {0.0 5.0 11 ------- null}
- -t 1.14933333333333 -s 4 -d 5 -p cbr -e 1000 -c 1 -i 10 -a 1 -x {0.0 5.0 10 ------- null}
h -t 1.14933333333333 -s 4 -d 5 -p cbr -e 1000 -c 1 -i 10 -a 1 -x {0.0 5.0 -1 ------- null}
r -t 1.15133333333333 -s 4 -d 5 -p cbr -e 1000 -c 1 -i 8 -a 1 -x {0.0 5.0 8 ------- null}
r -t 1.154625 -s 0 -d 3 -p cbr -e 1000 -c 1 -i 12 -a 1 -x {0.0 5.0 12 ------- null}
+ -t 1.154625 -s 3 -d 4 -p cbr -e 1000 -c 1 -i 12 -a 1 -x {0.0 5.0 12 ------- null}
- -t 1.154625 -s 3 -d 4 -p cbr -e 1000 -c 1 -i 12 -a 1 -x {0.0 5.0 12 ------- null}
h -t 1.154625 -s 3 -d 4 -p cbr -e 1000 -c 1 -i 12 -a 1 -x {0.0 5.0 -1 ------- null}
r -t 1.156625 -s 0 -d 3 -p cbr -e 500 -c 1 -i 13 -a 1 -x {0.0 5.0 13 ------- null}
+ -t 1.156625 -s 3 -d 4 -p cbr -e 500 -c 1 -i 13 -a 1 -x {0.0 5.0 13 ------- null}
r -t 1.15933333333333 -s 4 -d 5 -p cbr -e 500 -c 1 -i 9 -a 1 -x {0.0 5.0 9 ------- null}
- -t 1.15995833333333 -s 3 -d 4 -p cbr -e 500 -c 1 -i 13 -a 1 -x {0.0 5.0 13 ------- null}
h -t 1.15995833333333 -s 3 -d 4 -p cbr -e 500 -c 1 -i 13 -a 1 -x {0.0 5.0 -1 ------- null}
+ -t 1.1640625 -s 0 -d 3 -p cbr -e 1000 -c 1 -i 14 -a 1 -x {0.0 5.0 14 ------- null}
- -t 1.1640625 -s 0 -d 3 -p cbr -e 1000 -c 1 -i 14 -a 1 -x {0.0 5.0 14 ------- null}
h -t 1.1640625 -s 0 -d 3 -p cbr -e 1000 -c 1 -i 14 -a 1 -x {0.0 5.0 -1 ------- null}
+ -t 1.1640625 -s 0 -d 3 -p cbr -e 500 -c 1 -i 15 -a 1 -x {0.0 5.0 15 ------- null}
- -t 1.16533333333333 -s 4 -d 5 -p cbr -e 500 -c 1 -i 11 -a 1 -x {0.0 5.0 11 ------- null}
h -t 1.16533333333333 -s 4 -d 5 -p cbr -e 500 -c 1 -i 11 -a 1 -x {0.0 5.0 -1 ------- null}
- -t 1.1680625 -s 0 -d 3 -p cbr -e 500 -c 1 -i 15 -a 1 -x {0.0 5.0 15 ------- null}
h -t 1.1680625 -s 0 -d 3 -p cbr -e 500 -c 1 -i 15 -a 1 -x {0.0 5.0 -1 ------- null}
r -t 1.16995833333333 -s 3 -d 4 -p cbr -e 1000 -c 1 -i 12 -a 1 -x {0.0 5.0 12 ------- null}
+ -t 1.16995833333333 -s 4 -d 5 -p cbr -e 1000 -c 1 -i 12 -a 1 -x {0.0 5.0 12 ------- null}
r -t 1.172625 -s 3 -d 4 -p cbr -e 500 -c 1 -i 13 -a 1 -x {0.0 5.0 13 ------- null}
+ -t 1.172625 -s 4 -d 5 -p cbr -e 500 -c 1 -i 13 -a 1 -x {0.0 5.0 13 ------- null}
- -t 1.17333333333333 -s 4 -d 5 -p cbr -e 1000 -c 1 -i 12 -a 1 -x {0.0 5.0 12 ------- null}
h -t 1.17333333333333 -s 4 -d 5 -p cbr -e 1000 -c 1 -i 12 -a 1 -x {0.0 5.0 -1 ------- null}
r -t 1.17533333333333 -s 4 -d 5 -p cbr -e 1000 -c 1 -i 10 -a 1 -x {0.0 5.0 10 ------- null}
r -t 1.1780625 -s 0 -d 3 -p cbr -e 1000 -c 1 -i 14 -a 1 -x {0.0 5.0 14 ------- null}
+ -t 1.1780625 -s 3 -d 4 -p cbr -e 1000 -c 1 -i 14 -a 1 -x {0.0 5.0 14 ------- null}
- -t 1.1780625 -s 3 -d 4 -p cbr -e 1000 -c 1 -i 14 -a 1 -x {0.0 5.0 14 ------- null}
h -t 1.1780625 -s 3 -d 4 -p cbr -e 1000 -c 1 -i 14 -a 1 -x {0.0 5.0 -1 ------- null}
r -t 1.1800625 -s 0 -d 3 -p cbr -e 500 -c 1 -i 15 -a 1 -x {0.0 5.0 15 ------- null}
+ -t 1.1800625 -s 3 -d 4 -p cbr -e 500 -c 1 -i 15 -a 1 -x {0.0 5.0 15 ------- null}
r -t 1.18333333333333 -s 4 -d 5 -p cbr -e 500 -c 1 -i 11 -a 1 -x {0.0 5.0 11 ------- null}
- -t 1.18339583333333 -s 3 -d 4 -p cbr -e 500 -c 1 -i 15 -a 1 -x {0.0 5.0 15 ------- null}
h -t 1.18339583333333 -s 3 -d 4 -p cbr -e 500 -c 1 -i 15 -a 1 -x {0.0 5.0 -1 ------- null}
+ -t 1.1875 -s 0 -d 3 -p cbr -e 1000 -c 1 -i 16 -a 1 -x {0.0 5.0 16 ------- null}
- -t 1.1875 -s 0 -d 3 -p cbr -e 1000 -c 1 -i 16 -a 1 -x {0.0 5.0 16 ------- null}
h -t 1.1875 -s 0 -d 3 -p cbr -e 1000 -c 1 -i 16 -a 1 -x {0.0 5.0 -1 ------- null}
+ -t 1.1875 -s 0 -d 3 -p cbr -e 500 -c 1 -i 17 -a 1 -x {0.0 5.0 17 ------- null}
- -t 1.18933333333333 -s 4 -d 5 -p cbr -e 500 -c 1 -i 13 -a 1 -x {0.0 5.0 13 ------- null}
h -t 1.18933333333333 -s 4 -d 5 -p cbr -e 500 -c 1 -i 13 -a 1 -x {0.0 5.0 -1 ------- null}
- -t 1.1915 -s 0 -d 3 -p cbr -e 500 -c 1 -i 17 -a 1 -x {0.0 5.0 17 ------- null}
h -t 1.1915 -s 0 -d 3 -p cbr -e 500 -c 1 -i 17 -a 1 -x {0.0 5.0 -1 ------- null}
r -t 1.19339583333333 -s 3 -d 4 -p cbr -e 1000 -c 1 -i 14 -a 1 -x {0.0 5.0 14 ------- null}
+ -t 1.19339583333333 -s 4 -d 5 -p cbr -e 1000 -c 1 -i 14 -a 1 -x {0.0 5.0 14 ------- null}
r -t 1.1960625 -s 3 -d 4 -p cbr -e 500 -c 1 -i 15 -a 1 -x {0.0 5.0 15 ------- null}
+ -t 1.1960625 -s 4 -d 5 -p cbr -e 500 -c 1 -i 15 -a 1 -x {0.0 5.0 15 ------- null}
- -t 1.19733333333333 -s 4 -d 5 -p cbr -e 1000 -c 1 -i 14 -a 1 -x {0.0 5.0 14 ------- null}
h -t 1.19733333333333 -s 4 -d 5 -p cbr -e 1000 -c 1 -i 14 -a 1 -x {0.0 5.0 -1 ------- null}
r -t 1.19933333333333 -s 4 -d 5 -p cbr -e 1000 -c 1 -i 12 -a 1 -x {0.0 5.0 12 ------- null}
r -t 1.2015 -s 0 -d 3 -p cbr -e 1000 -c 1 -i 16 -a 1 -x {0.0 5.0 16 ------- null}
+ -t 1.2015 -s 3 -d 4 -p cbr -e 1000 -c 1 -i 16 -a 1 -x {0.0 5.0 16 ------- null}
- -t 1.2015 -s 3 -d 4 -p cbr -e 1000 -c 1 -i 16 -a 1 -x {0.0 5.0 16 ------- null}
h -t 1.2015 -s 3 -d 4 -p cbr -e 1000 -c 1 -i 16 -a 1 -x {0.0 5.0 -1 ------- null}
r -t 1.2035 -s 0 -d 3 -p cbr -e 500 -c 1 -i 17 -a 1 -x {0.0 5.0 17 ------- null}
+ -t 1.2035 -s 3 -d 4 -p cbr -e 500 -c 1 -i 17 -a 1 -x {0.0 5.0 17 ------- null}
- -t 1.20683333333333 -s 3 -d 4 -p cbr -e 500 -c 1 -i 17 -a 1 -x {0.0 5.0 17 ------- null}
h -t 1.20683333333333 -s 3 -d 4 -p cbr -e 500 -c 1 -i 17 -a 1 -x {0.0 5.0 -1 ------- null}
r -t 1.20733333333333 -s 4 -d 5 -p cbr -e 500 -c 1 -i 13 -a 1 -x {0.0 5.0 13 ------- null}
+ -t 1.2109375 -s 0 -d 3 -p cbr -e 1000 -c 1 -i 18 -a 1 -x {0.0 5.0 18 ------- null}
- -t 1.2109375 -s 0 -d 3 -p cbr -e 1000 -c 1 -i 18 -a 1 -x {0.0 5.0 18 ------- null}
h -t 1.2109375 -s 0 -d 3 -p cbr -e 1000 -c 1 -i 18 -a 1 -x {0.0 5.0 -1 ------- null}
+ -t 1.2109375 -s 0 -d 3 -p cbr -e 500 -c 1 -i 19 -a 1 -x {0.0 5.0 19 ------- null}
- -t 1.21333333333333 -s 4 -d 5 -p cbr -e 500 -c 1 -i 15 -a 1 -x {0.0 5.0 15 ------- null}
h -t 1.21333333333333 -s 4 -d 5 -p cbr -e 500 -c 1 -i 15 -a 1 -x {0.0 5.0 -1 ------- null}
- -t 1.2149375 -s 0 -d 3 -p cbr -e 500 -c 1 -i 19 -a 1 -x {0.0 5.0 19 ------- null}
h -t 1.2149375 -s 0 -d 3 -p cbr -e 500 -c 1 -i 19 -a 1 -x {0.0 5.0 -1 ------- null}
r -t 1.21683333333333 -s 3 -d 4 -p cbr -e 1000 -c 1 -i 16 -a 1 -x {0.0 5.0 16 ------- null}
+ -t 1.21683333333333 -s 4 -d 5 -p cbr -e 1000 -c 1 -i 16 -a 1 -x {0.0 5.0 16 ------- null}
r -t 1.2195 -s 3 -d 4 -p cbr -e 500 -c 1 -i 17 -a 1 -x {0.0 5.0 17 ------- null}
+ -t 1.2195 -s 4 -d 5 -p cbr -e 500 -c 1 -i 17 -a 1 -x {0.0 5.0 17 ------- null}
- -t 1.22133333333333 -s 4 -d 5 -p cbr -e 1000 -c 1 -i 16 -a 1 -x {0.0 5.0 16 ------- null}
h -t 1.22133333333333 -s 4 -d 5 -p cbr -e 1000 -c 1 -i 16 -a 1 -x {0.0 5.0 -1 ------- null}
r -t 1.22333333333333 -s 4 -d 5 -p cbr -e 1000 -c 1 -i 14 -a 1 -x {0.0 5.0 14 ------- null}
r -t 1.2249375 -s 0 -d 3 -p cbr -e 1000 -c 1 -i 18 -a 1 -x {0.0 5.0 18 ------- null}
+ -t 1.2249375 -s 3 -d 4 -p cbr -e 1000 -c 1 -i 18 -a 1 -x {0.0 5.0 18 ------- null}
- -t 1.2249375 -s 3 -d 4 -p cbr -e 1000 -c 1 -i 18 -a 1 -x {0.0 5.0 18 ------- null}
h -t 1.2249375 -s 3 -d 4 -p cbr -e 1000 -c 1 -i 18 -a 1 -x {0.0 5.0 -1 ------- null}
r -t 1.2269375 -s 0 -d 3 -p cbr -e 500 -c 1 -i 19 -a 1 -x {0.0 5.0 19 ------- null}
+ -t 1.2269375 -s 3 -d 4 -p cbr -e 500 -c 1 -i 19 -a 1 -x {0.0 5.0 19 ------- null}
- -t 1.23027083333333 -s 3 -d 4 -p cbr -e 500 -c 1 -i 19 -a 1 -x {0.0 5.0 19 ------- null}
h -t 1.23027083333333 -s 3 -d 4 -p cbr -e 500 -c 1 -i 19 -a 1 -x {0.0 5.0 -1 ------- null}
r -t 1.23133333333333 -s 4 -d 5 -p cbr -e 500 -c 1 -i 15 -a 1 -x {0.0 5.0 15 ------- null}
+ -t 1.234375 -s 0 -d 3 -p cbr -e 1000 -c 1 -i 20 -a 1 -x {0.0 5.0 20 ------- null}
- -t 1.234375 -s 0 -d 3 -p cbr -e 1000 -c 1 -i 20 -a 1 -x {0.0 5.0 20 ------- null}
h -t 1.234375 -s 0 -d 3 -p cbr -e 1000 -c 1 -i 20 -a 1 -x {0.0 5.0 -1 ------- null}
+ -t 1.234375 -s 0 -d 3 -p cbr -e 500 -c 1 -i 21 -a 1 -x {0.0 5.0 21 ------- null}
- -t 1.23733333333333 -s 4 -d 5 -p cbr -e 500 -c 1 -i 17 -a 1 -x {0.0 5.0 17 ------- null}
h -t 1.23733333333333 -s 4 -d 5 -p cbr -e 500 -c 1 -i 17 -a 1 -x {0.0 5.0 -1 ------- null}
- -t 1.238375 -s 0 -d 3 -p cbr -e 500 -c 1 -i 21 -a 1 -x {0.0 5.0 21 ------- null}
h -t 1.238375 -s 0 -d 3 -p cbr -e 500 -c 1 -i 21 -a 1 -x {0.0 5.0 -1 ------- null}
r -t 1.24027083333333 -s 3 -d 4 -p cbr -e 1000 -c 1 -i 18 -a 1 -x {0.0 5.0 18 ------- null}
+ -t 1.24027083333333 -s 4 -d 5 -p cbr -e 1000 -c 1 -i 18 -a 1 -x {0.0 5.0 18 ------- null}
r -t 1.2429375 -s 3 -d 4 -p cbr -e 500 -c 1 -i 19 -a 1 -x {0.0 5.0 19 ------- null}
+ -t 1.2429375 -s 4 -d 5 -p cbr -e 500 -c 1 -i 19 -a 1 -x {0.0 5.0 19 ------- null}
- -t 1.24533333333333 -s 4 -d 5 -p cbr -e 1000 -c 1 -i 18 -a 1 -x {0.0 5.0 18 ------- null}
h -t 1.24533333333333 -s 4 -d 5 -p cbr -e 1000 -c 1 -i 18 -a 1 -x {0.0 5.0 -1 ------- null}
r -t 1.24733333333333 -s 4 -d 5 -p cbr -e 1000 -c 1 -i 16 -a 1 -x {0.0 5.0 16 ------- null}
r -t 1.248375 -s 0 -d 3 -p cbr -e 1000 -c 1 -i 20 -a 1 -x {0.0 5.0 20 ------- null}
+ -t 1.248375 -s 3 -d 4 -p cbr -e 1000 -c 1 -i 20 -a 1 -x {0.0 5.0 20 ------- null}
- -t 1.248375 -s 3 -d 4 -p cbr -e 1000 -c 1 -i 20 -a 1 -x {0.0 5.0 20 ------- null}
h -t 1.248375 -s 3 -d 4 -p cbr -e 1000 -c 1 -i 20 -a 1 -x {0.0 5.0 -1 ------- null}
r -t 1.250375 -s 0 -d 3 -p cbr -e 500 -c 1 -i 21 -a 1 -x {0.0 5.0 21 ------- null}
+ -t 1.250375 -s 3 -d 4 -p cbr -e 500 -c 1 -i 21 -a 1 -x {0.0 5.0 21 ------- null}
- -t 1.25370833333333 -s 3 -d 4 -p cbr -e 500 -c 1 -i 21 -a 1 -x {0.0 5.0 21 ------- null}
h -t 1.25370833333333 -s 3 -d 4 -p cbr -e 500 -c 1 -i 21 -a 1 -x {0.0 5.0 -1 ------- null}
r -t 1.25533333333333 -s 4 -d 5 -p cbr -e 500 -c 1 -i 17 -a 1 -x {0.0 5.0 17 ------- null}
+ -t 1.2578125 -s 0 -d 3 -p cbr -e 1000 -c 1 -i 22 -a 1 -x {0.0 5.0 22 ------- null}
- -t 1.2578125 -s 0 -d 3 -p cbr -e 1000 -c 1 -i 22 -a 1 -x {0.0 5.0 22 ------- null}
h -t 1.2578125 -s 0 -d 3 -p cbr -e 1000 -c 1 -i 22 -a 1 -x {0.0 5.0 -1 ------- null}
+ -t 1.2578125 -s 0 -d 3 -p cbr -e 500 -c 1 -i 23 -a 1 -x {0.0 5.0 23 ------- null}
- -t 1.26133333333333 -s 4 -d 5 -p cbr -e 500 -c 1 -i 19 -a 1 -x {0.0 5.0 19 ------- null}
h -t 1.26133333333333 -s 4 -d 5 -p cbr -e 500 -c 1 -i 19 -a 1 -x {0.0 5.0 -1 ------- null}
- -t 1.2618125 -s 0 -d 3 -p cbr -e 500 -c 1 -i 23 -a 1 -x {0.0 5.0 23 ------- null}
h -t 1.2618125 -s 0 -d 3 -p cbr -e 500 -c 1 -i 23 -a 1 -x {0.0 5.0 -1 ------- null}
r -t 1.26370833333333 -s 3 -d 4 -p cbr -e 1000 -c 1 -i 20 -a 1 -x {0.0 5.0 20 ------- null}
+ -t 1.26370833333333 -s 4 -d 5 -p cbr -e 1000 -c 1 -i 20 -a 1 -x {0.0 5.0 20 ------- null}
r -t 1.266375 -s 3 -d 4 -p cbr -e 500 -c 1 -i 21 -a 1 -x {0.0 5.0 21 ------- null}
+ -t 1.266375 -s 4 -d 5 -p cbr -e 500 -c 1 -i 21 -a 1 -x {0.0 5.0 21 ------- null}
- -t 1.26933333333333 -s 4 -d 5 -p cbr -e 1000 -c 1 -i 20 -a 1 -x {0.0 5.0 20 ------- null}
h -t 1.26933333333333 -s 4 -d 5 -p cbr -e 1000 -c 1 -i 20 -a 1 -x {0.0 5.0 -1 ------- null}
r -t 1.27133333333333 -s 4 -d 5 -p cbr -e 1000 -c 1 -i 18 -a 1 -x {0.0 5.0 18 ------- null}
r -t 1.2718125 -s 0 -d 3 -p cbr -e 1000 -c 1 -i 22 -a 1 -x {0.0 5.0 22 ------- null}
+ -t 1.2718125 -s 3 -d 4 -p cbr -e 1000 -c 1 -i 22 -a 1 -x {0.0 5.0 22 ------- null}
- -t 1.2718125 -s 3 -d 4 -p cbr -e 1000 -c 1 -i 22 -a 1 -x {0.0 5.0 22 ------- null}
h -t 1.2718125 -s 3 -d 4 -p cbr -e 1000 -c 1 -i 22 -a 1 -x {0.0 5.0 -1 ------- null}
r -t 1.2738125 -s 0 -d 3 -p cbr -e 500 -c 1 -i 23 -a 1 -x {0.0 5.0 23 ------- null}
+ -t 1.2738125 -s 3 -d 4 -p cbr -e 500 -c 1 -i 23 -a 1 -x {0.0 5.0 23 ------- null}
- -t 1.27714583333333 -s 3 -d 4 -p cbr -e 500 -c 1 -i 23 -a 1 -x {0.0 5.0 23 ------- null}
h -t 1.27714583333333 -s 3 -d 4 -p cbr -e 500 -c 1 -i 23 -a 1 -x {0.0 5.0 -1 ------- null}
r -t 1.27933333333333 -s 4 -d 5 -p cbr -e 500 -c 1 -i 19 -a 1 -x {0.0 5.0 19 ------- null}
+ -t 1.28125 -s 0 -d 3 -p cbr -e 1000 -c 1 -i 24 -a 1 -x {0.0 5.0 24 ------- null}
- -t 1.28125 -s 0 -d 3 -p cbr -e 1000 -c 1 -i 24 -a 1 -x {0.0 5.0 24 ------- null}
h -t 1.28125 -s 0 -d 3 -p cbr -e 1000 -c 1 -i 24 -a 1 -x {0.0 5.0 -1 ------- null}
+ -t 1.28125 -s 0 -d 3 -p cbr -e 500 -c 1 -i 25 -a 1 -x {0.0 5.0 25 ------- null}
- -t 1.28525 -s 0 -d 3 -p cbr -e 500 -c 1 -i 25 -a 1 -x {0.0 5.0 25 ------- null}
h -t 1.28525 -s 0 -d 3 -p cbr -e 500 -c 1 -i 25 -a 1 -x {0.0 5.0 -1 ------- null}
- -t 1.28533333333333 -s 4 -d 5 -p cbr -e 500 -c 1 -i 21 -a 1 -x {0.0 5.0 21 ------- null}
h -t 1.28533333333333 -s 4 -d 5 -p cbr -e 500 -c 1 -i 21 -a 1 -x {0.0 5.0 -1 ------- null}
r -t 1.28714583333333 -s 3 -d 4 -p cbr -e 1000 -c 1 -i 22 -a 1 -x {0.0 5.0 22 ------- null}
+ -t 1.28714583333333 -s 4 -d 5 -p cbr -e 1000 -c 1 -i 22 -a 1 -x {0.0 5.0 22 ------- null}
r -t 1.2898125 -s 3 -d 4 -p cbr -e 500 -c 1 -i 23 -a 1 -x {0.0 5.0 23 ------- null}
+ -t 1.2898125 -s 4 -d 5 -p cbr -e 500 -c 1 -i 23 -a 1 -x {0.0 5.0 23 ------- null}
- -t 1.29333333333333 -s 4 -d 5 -p cbr -e 1000 -c 1 -i 22 -a 1 -x {0.0 5.0 22 ------- null}
h -t 1.29333333333333 -s 4 -d 5 -p cbr -e 1000 -c 1 -i 22 -a 1 -x {0.0 5.0 -1 ------- null}
r -t 1.29525 -s 0 -d 3 -p cbr -e 1000 -c 1 -i 24 -a 1 -x {0.0 5.0 24 ------- null}
+ -t 1.29525 -s 3 -d 4 -p cbr -e 1000 -c 1 -i 24 -a 1 -x {0.0 5.0 24 ------- null}
- -t 1.29525 -s 3 -d 4 -p cbr -e 1000 -c 1 -i 24 -a 1 -x {0.0 5.0 24 ------- null}
h -t 1.29525 -s 3 -d 4 -p cbr -e 1000 -c 1 -i 24 -a 1 -x {0.0 5.0 -1 ------- null}
r -t 1.29533333333333 -s 4 -d 5 -p cbr -e 1000 -c 1 -i 20 -a 1 -x {0.0 5.0 20 ------- null}
r -t 1.29725 -s 0 -d 3 -p cbr -e 500 -c 1 -i 25 -a 1 -x {0.0 5.0 25 ------- null}
+ -t 1.29725 -s 3 -d 4 -p cbr -e 500 -c 1 -i 25 -a 1 -x {0.0 5.0 25 ------- null}
- -t 1.30058333333333 -s 3 -d 4 -p cbr -e 500 -c 1 -i 25 -a 1 -x {0.0 5.0 25 ------- null}
h -t 1.30058333333333 -s 3 -d 4 -p cbr -e 500 -c 1 -i 25 -a 1 -x {0.0 5.0 -1 ------- null}
r -t 1.30333333333333 -s 4 -d 5 -p cbr -e 500 -c 1 -i 21 -a 1 -x {0.0 5.0 21 ------- null}
+ -t 1.3046875 -s 0 -d 3 -p cbr -e 1000 -c 1 -i 26 -a 1 -x {0.0 5.0 26 ------- null}
- -t 1.3046875 -s 0 -d 3 -p cbr -e 1000 -c 1 -i 26 -a 1 -x {0.0 5.0 26 ------- null}
h -t 1.3046875 -s 0 -d 3 -p cbr -e 1000 -c 1 -i 26 -a 1 -x {0.0 5.0 -1 ------- null}
+ -t 1.3046875 -s 0 -d 3 -p cbr -e 500 -c 1 -i 27 -a 1 -x {0.0 5.0 27 ------- null}
- -t 1.3086875 -s 0 -d 3 -p cbr -e 500 -c 1 -i 27 -a 1 -x {0.0 5.0 27 ------- null}
h -t 1.3086875 -s 0 -d 3 -p cbr -e 500 -c 1 -i 27 -a 1 -x {0.0 5.0 -1 ------- null}
- -t 1.30933333333333 -s 4 -d 5 -p cbr -e 500 -c 1 -i 23 -a 1 -x {0.0 5.0 23 ------- null}
h -t 1.30933333333333 -s 4 -d 5 -p cbr -e 500 -c 1 -i 23 -a 1 -x {0.0 5.0 -1 ------- null}
r -t 1.31058333333333 -s 3 -d 4 -p cbr -e 1000 -c 1 -i 24 -a 1 -x {0.0 5.0 24 ------- null}
+ -t 1.31058333333333 -s 4 -d 5 -p cbr -e 1000 -c 1 -i 24 -a 1 -x {0.0 5.0 24 ------- null}
r -t 1.31325 -s 3 -d 4 -p cbr -e 500 -c 1 -i 25 -a 1 -x {0.0 5.0 25 ------- null}
+ -t 1.31325 -s 4 -d 5 -p cbr -e 500 -c 1 -i 25 -a 1 -x {0.0 5.0 25 ------- null}
- -t 1.31733333333333 -s 4 -d 5 -p cbr -e 1000 -c 1 -i 24 -a 1 -x {0.0 5.0 24 ------- null}
h -t 1.31733333333333 -s 4 -d 5 -p cbr -e 1000 -c 1 -i 24 -a 1 -x {0.0 5.0 -1 ------- null}
r -t 1.3186875 -s 0 -d 3 -p cbr -e 1000 -c 1 -i 26 -a 1 -x {0.0 5.0 26 ------- null}
+ -t 1.3186875 -s 3 -d 4 -p cbr -e 1000 -c 1 -i 26 -a 1 -x {0.0 5.0 26 ------- null}
- -t 1.3186875 -s 3 -d 4 -p cbr -e 1000 -c 1 -i 26 -a 1 -x {0.0 5.0 26 ------- null}
h -t 1.3186875 -s 3 -d 4 -p cbr -e 1000 -c 1 -i 26 -a 1 -x {0.0 5.0 -1 ------- null}
r -t 1.31933333333333 -s 4 -d 5 -p cbr -e 1000 -c 1 -i 22 -a 1 -x {0.0 5.0 22 ------- null}
r -t 1.3206875 -s 0 -d 3 -p cbr -e 500 -c 1 -i 27 -a 1 -x {0.0 5.0 27 ------- null}
+ -t 1.3206875 -s 3 -d 4 -p cbr -e 500 -c 1 -i 27 -a 1 -x {0.0 5.0 27 ------- null}
- -t 1.32402083333333 -s 3 -d 4 -p cbr -e 500 -c 1 -i 27 -a 1 -x {0.0 5.0 27 ------- null}
h -t 1.32402083333333 -s 3 -d 4 -p cbr -e 500 -c 1 -i 27 -a 1 -x {0.0 5.0 -1 ------- null}
r -t 1.32733333333333 -s 4 -d 5 -p cbr -e 500 -c 1 -i 23 -a 1 -x {0.0 5.0 23 ------- null}
+ -t 1.328125 -s 0 -d 3 -p cbr -e 1000 -c 1 -i 28 -a 1 -x {0.0 5.0 28 ------- null}
- -t 1.328125 -s 0 -d 3 -p cbr -e 1000 -c 1 -i 28 -a 1 -x {0.0 5.0 28 ------- null}
h -t 1.328125 -s 0 -d 3 -p cbr -e 1000 -c 1 -i 28 -a 1 -x {0.0 5.0 -1 ------- null}
+ -t 1.328125 -s 0 -d 3 -p cbr -e 500 -c 1 -i 29 -a 1 -x {0.0 5.0 29 ------- null}
- -t 1.332125 -s 0 -d 3 -p cbr -e 500 -c 1 -i 29 -a 1 -x {0.0 5.0 29 ------- null}
h -t 1.332125 -s 0 -d 3 -p cbr -e 500 -c 1 -i 29 -a 1 -x {0.0 5.0 -1 ------- null}
- -t 1.33333333333333 -s 4 -d 5 -p cbr -e 500 -c 1 -i 25 -a 1 -x {0.0 5.0 25 ------- null}
h -t 1.33333333333333 -s 4 -d 5 -p cbr -e 500 -c 1 -i 25 -a 1 -x {0.0 5.0 -1 ------- null}
r -t 1.33402083333333 -s 3 -d 4 -p cbr -e 1000 -c 1 -i 26 -a 1 -x {0.0 5.0 26 ------- null}
+ -t 1.33402083333333 -s 4 -d 5 -p cbr -e 1000 -c 1 -i 26 -a 1 -x {0.0 5.0 26 ------- null}
r -t 1.3366875 -s 3 -d 4 -p cbr -e 500 -c 1 -i 27 -a 1 -x {0.0 5.0 27 ------- null}
+ -t 1.3366875 -s 4 -d 5 -p cbr -e 500 -c 1 -i 27 -a 1 -x {0.0 5.0 27 ------- null}
- -t 1.34133333333333 -s 4 -d 5 -p cbr -e 1000 -c 1 -i 26 -a 1 -x {0.0 5.0 26 ------- null}
h -t 1.34133333333333 -s 4 -d 5 -p cbr -e 1000 -c 1 -i 26 -a 1 -x {0.0 5.0 -1 ------- null}